Program Version,EnergyPlus, Version 8.5.0-c87e61b44b, YMD=2016.08.12 12:55
1,5,Environment Title[],Latitude[deg],Longitude[deg],Time Zone[],Elevation[m]
2,6,Day of Simulation[],Month[],Day of Month[],DST Indicator[1=yes 0=no],Hour[],StartMinute[],EndMinute[],DayType
3,3,Cumulative Day of Simulation[],Month[],Day of Month[],DST Indicator[1=yes 0=no],DayType  ! When Daily Report Variables Requested
4,2,Cumulative Days of Simulation[],Month[]  ! When Monthly Report Variables Requested
5,1,Cumulative Days of Simulation[] ! When Run Period Report Variables Requested
6,1,ZONE ONE,Zone Outdoor Air Drybulb Temperature [C] !TimeStep
7,1,ZONE ONE,Zone Mean Air Temperature [C] !TimeStep
End of Data Dictionary
1,Denver Centennial  Golden   Nr CO USA TMY3 WMO#=724666,  39.74,-105.18,  -7.00,1829.00
2,1, 1, 1, 0, 1, 0.00,10.00,Sunday
6,-6.33235833377052
7,0.830323590213779
2,1, 1, 1, 0, 1,10.00,20.00,Sunday
6,-5.66569166710385
7,0.699844536810163
2,1, 1, 1, 0, 1,20.00,30.00,Sunday
6,-4.99902500043719
7,0.598140976543135
2,1, 1, 1, 0, 1,30.00,40.00,Sunday
6,-4.33235833377052
7,0.515070186318651
2,1, 1, 1, 0, 1,40.00,50.00,Sunday
6,-3.66569166710385
7,0.44650374853374
2,1, 1, 1, 0, 1,50.00,60.00,Sunday
6,-2.99902500043719
7,0.390664478280688
2,1, 1, 1, 0, 2, 0.00,10.00,Sunday
6,-2.99902500043719
7,0.318562835397187
2,1, 1, 1, 0, 2,10.00,20.00,Sunday
6,-2.99902500043719
7,0.2240470836447
2,1, 1, 1, 0, 2,20.00,30.00,Sunday
6,-2.99902500043719
7,0.116827483261292
2,1, 1, 1, 0, 2,30.00,40.00,Sunday
6,-2.99902500043719
7,7.731197992774213E-003
2,1, 1, 1, 0, 2,40.00,50.00,Sunday
6,-2.99902500043719
7,-9.741919259486255E-002
2,1, 1, 1, 0, 2,50.00,60.00,Sunday
6,-2.99902500043719
7,-0.19689681353924
2,1, 1, 1, 0, 3, 0.00,10.00,Sunday
6,-3.16569166710385
7,-0.300014263878145
2,1, 1, 1, 0, 3,10.00,20.00,Sunday
6,-3.33235833377052
7,-0.410160124747143
2,1, 1, 1, 0, 3,20.00,30.00,Sunday
6,-3.49902500043719
7,-0.526098637371251
2,1, 1, 1, 0, 3,30.00,40.00,Sunday
6,-3.66569166710385
7,-0.64387304454062
2,1, 1, 1, 0, 3,40.00,50.00,Sunday
6,-3.83235833377052
7,-0.761529429741016
2,1, 1, 1, 0, 3,50.00,60.00,Sunday
6,-3.99902500043719
7,-0.879345902921934
2,1, 1, 1, 0, 4, 0.00,10.00,Sunday
6,-3.66569166710385
7,-0.973098438189385
2,1, 1, 1, 0, 4,10.00,20.00,Sunday
6,-3.33235833377052
7,-1.03845225068109
2,1, 1, 1, 0, 4,20.00,30.00,Sunday
6,-2.99902500043719
7,-1.08273773314538
2,1, 1, 1, 0, 4,30.00,40.00,Sunday
6,-2.66569166710385
7,-1.11141557528623
2,1, 1, 1, 0, 4,40.00,50.00,Sunday
6,-2.33235833377052
7,-1.13286781137951
2,1, 1, 1, 0, 4,50.00,60.00,Sunday
6,-1.99902500043719
7,-1.14931267585774
2,1, 1, 1, 0, 5, 0.00,10.00,Sunday
6,-1.99902500043719
7,-1.17441524256519
2,1, 1, 1, 0, 5,10.00,20.00,Sunday
6,-1.99902500043719
7,-1.20850089761736
2,1, 1, 1, 0, 5,20.00,30.00,Sunday
6,-1.99902500043719
7,-1.24514010081577
2,1, 1, 1, 0, 5,30.00,40.00,Sunday
6,-1.99902500043719
7,-1.27889724083399
2,1, 1, 1, 0, 5,40.00,50.00,Sunday
6,-1.99902500043719
7,-1.30869948898432
2,1, 1, 1, 0, 5,50.00,60.00,Sunday
6,-1.99902500043719
7,-1.33547077610896
2,1, 1, 1, 0, 6, 0.00,10.00,Sunday
6,-1.83235833377052
7,-1.35361580833276
2,1, 1, 1, 0, 6,10.00,20.00,Sunday
6,-1.66569166710385
7,-1.36256199054183
2,1, 1, 1, 0, 6,20.00,30.00,Sunday
6,-1.49902500043719
7,-1.36533222596316
2,1, 1, 1, 0, 6,30.00,40.00,Sunday
6,-1.33235833377052
7,-1.36534869427907
2,1, 1, 1, 0, 6,40.00,50.00,Sunday
6,-1.16569166710385
7,-1.36406019785864
2,1, 1, 1, 0, 6,50.00,60.00,Sunday
6,-0.999025000437185
7,-1.3635686354674
2,1, 1, 1, 0, 7, 0.00,10.00,Sunday
6,-0.999025000437185
7,-1.36800748175804
2,1, 1, 1, 0, 7,10.00,20.00,Sunday
6,-0.999025000437185
7,-1.37860307894625
2,1, 1, 1, 0, 7,20.00,30.00,Sunday
6,-0.999025000437185
7,-1.39217316331797
2,1, 1, 1, 0, 7,30.00,40.00,Sunday
6,-0.999025000437185
7,-1.40521234175543
2,1, 1, 1, 0, 7,40.00,50.00,Sunday
6,-0.999025000437185
7,-1.41551400680793
2,1, 1, 1, 0, 7,50.00,60.00,Sunday
6,-0.999025000437185
7,-1.42234973569195
2,1, 1, 1, 0, 8, 0.00,10.00,Sunday
6,-0.999025000437185
7,-1.42663537259531
2,1, 1, 1, 0, 8,10.00,20.00,Sunday
6,-0.999025000437185
7,-1.42923765315374
2,1, 1, 1, 0, 8,20.00,30.00,Sunday
6,-0.999025000437185
7,-1.37614686127865
2,1, 1, 1, 0, 8,30.00,40.00,Sunday
6,-0.999025000437185
7,-1.17080266517466
2,1, 1, 1, 0, 8,40.00,50.00,Sunday
6,-0.999025000437185
7,-0.75839445209416
2,1, 1, 1, 0, 8,50.00,60.00,Sunday
6,-0.999025000437185
7,-0.128442949632923
2,1, 1, 1, 0, 9, 0.00,10.00,Sunday
6,-0.832358333770519
7,0.689145875637251
2,1, 1, 1, 0, 9,10.00,20.00,Sunday
6,-0.665691667103852
7,1.65431184157124
2,1, 1, 1, 0, 9,20.00,30.00,Sunday
6,-0.499025000437185
7,2.73524264704296
2,1, 1, 1, 0, 9,30.00,40.00,Sunday
6,-0.332358333770519
7,3.75435009754564
2,1, 1, 1, 0, 9,40.00,50.00,Sunday
6,-0.165691667103852
7,4.56747186460517
2,1, 1, 1, 0, 9,50.00,60.00,Sunday
6,9.749995628148094E-004
7,5.13880313486425
2,1, 1, 1, 0,10, 0.00,10.00,Sunday
6,0.334308332896148
7,5.48365353746642
2,1, 1, 1, 0,10,10.00,20.00,Sunday
6,0.667641666229481
7,5.61788374439781
2,1, 1, 1, 0,10,20.00,30.00,Sunday
6,1.00097499956282
7,5.56028465983172
2,1, 1, 1, 0,10,30.00,40.00,Sunday
6,1.33430833289615
7,5.55291932092669
2,1, 1, 1, 0,10,40.00,50.00,Sunday
6,1.66764166622948
7,5.86437408879639
2,1, 1, 1, 0,10,50.00,60.00,Sunday
6,2.00097499956281
7,6.63070361755299
2,1, 1, 1, 0,11, 0.00,10.00,Sunday
6,2.00097499956281
7,7.77785912801359
2,1, 1, 1, 0,11,10.00,20.00,Sunday
6,2.00097499956281
7,9.20669978102842
2,1, 1, 1, 0,11,20.00,30.00,Sunday
6,2.00097499956281
7,10.8786419471248
2,1, 1, 1, 0,11,30.00,40.00,Sunday
6,2.00097499956281
7,12.5219281383007
2,1, 1, 1, 0,11,40.00,50.00,Sunday
6,2.00097499956281
7,13.9546560668632
2,1, 1, 1, 0,11,50.00,60.00,Sunday
6,2.00097499956281
7,15.1625731779661
2,1, 1, 1, 0,12, 0.00,10.00,Sunday
6,1.83430833289615
7,16.15953726671
2,1, 1, 1, 0,12,10.00,20.00,Sunday
6,1.66764166622948
7,16.9646004835291
2,1, 1, 1, 0,12,20.00,30.00,Sunday
6,1.50097499956282
7,17.6099157965784
2,1, 1, 1, 0,12,30.00,40.00,Sunday
6,1.33430833289615
7,18.1520212775325
2,1, 1, 1, 0,12,40.00,50.00,Sunday
6,1.16764166622948
7,18.5792630646227
2,1, 1, 1, 0,12,50.00,60.00,Sunday
6,1.00097499956282
7,18.9014250788127
2,1, 1, 1, 0,13, 0.00,10.00,Sunday
6,1.33430833289615
7,19.1671416183391
2,1, 1, 1, 0,13,10.00,20.00,Sunday
6,1.66764166622948
7,19.3729923573798
2,1, 1, 1, 0,13,20.00,30.00,Sunday
6,2.00097499956281
7,19.4867174412867
2,1, 1, 1, 0,13,30.00,40.00,Sunday
6,2.33430833289615
7,19.5328047752596
2,1, 1, 1, 0,13,40.00,50.00,Sunday
6,2.66764166622948
7,19.5588562631236
2,1, 1, 1, 0,13,50.00,60.00,Sunday
6,3.00097499956281
7,19.5597149090537
2,1, 1, 1, 0,14, 0.00,10.00,Sunday
6,2.83430833289615
7,19.497391888447
2,1, 1, 1, 0,14,10.00,20.00,Sunday
6,2.66764166622948
7,19.3283260743745
2,1, 1, 1, 0,14,20.00,30.00,Sunday
6,2.50097499956281
7,19.0868414870099
2,1, 1, 1, 0,14,30.00,40.00,Sunday
6,2.33430833289615
7,18.818407611695
2,1, 1, 1, 0,14,40.00,50.00,Sunday
6,2.16764166622948
7,18.548966774263
2,1, 1, 1, 0,14,50.00,60.00,Sunday
6,2.00097499956281
7,18.2617626973975
2,1, 1, 1, 0,15, 0.00,10.00,Sunday
6,1.83430833289615
7,17.944470574062
2,1, 1, 1, 0,15,10.00,20.00,Sunday
6,1.66764166622948
7,17.5991947884617
2,1, 1, 1, 0,15,20.00,30.00,Sunday
6,1.50097499956282
7,17.2337482428766
2,1, 1, 1, 0,15,30.00,40.00,Sunday
6,1.33430833289615
7,16.8653410824325
2,1, 1, 1, 0,15,40.00,50.00,Sunday
6,1.16764166622948
7,16.504241231826
2,1, 1, 1, 0,15,50.00,60.00,Sunday
6,1.00097499956282
7,16.15097993794
2,1, 1, 1, 0,16, 0.00,10.00,Sunday
6,1.00097499956282
7,15.8116525286476
2,1, 1, 1, 0,16,10.00,20.00,Sunday
6,1.00097499956282
7,15.4768486727885
2,1, 1, 1, 0,16,20.00,30.00,Sunday
6,1.00097499956282
7,15.1512186668196
2,1, 1, 1, 0,16,30.00,40.00,Sunday
6,1.00097499956282
7,14.8665395502339
2,1, 1, 1, 0,16,40.00,50.00,Sunday
6,1.00097499956282
7,14.6586235585871
2,1, 1, 1, 0,16,50.00,60.00,Sunday
6,1.00097499956282
7,14.5259299094188
2,1, 1, 1, 0,17, 0.00,10.00,Sunday
6,0.834308332896148
7,14.4540816330257
2,1, 1, 1, 0,17,10.00,20.00,Sunday
6,0.667641666229482
7,14.3866423636241
2,1, 1, 1, 0,17,20.00,30.00,Sunday
6,0.500974999562815
7,14.3041334452187
2,1, 1, 1, 0,17,30.00,40.00,Sunday
6,0.334308332896148
7,14.1672241198697
2,1, 1, 1, 0,17,40.00,50.00,Sunday
6,0.167641666229481
7,13.8653329191465
2,1, 1, 1, 0,17,50.00,60.00,Sunday
6,9.749995628148094E-004
7,13.455193254975
2,1, 1, 1, 0,18, 0.00,10.00,Sunday
6,-0.165691667103852
7,13.035461031664
2,1, 1, 1, 0,18,10.00,20.00,Sunday
6,-0.332358333770519
7,12.6474858072138
2,1, 1, 1, 0,18,20.00,30.00,Sunday
6,-0.499025000437185
7,12.2855227814633
2,1, 1, 1, 0,18,30.00,40.00,Sunday
6,-0.665691667103852
7,11.9345893691894
2,1, 1, 1, 0,18,40.00,50.00,Sunday
6,-0.832358333770519
7,11.5879581785515
2,1, 1, 1, 0,18,50.00,60.00,Sunday
6,-0.999025000437185
7,11.2457535607286
2,1, 1, 1, 0,19, 0.00,10.00,Sunday
6,-1.16569166710385
7,10.9096931285966
2,1, 1, 1, 0,19,10.00,20.00,Sunday
6,-1.33235833377052
7,10.5747189405084
2,1, 1, 1, 0,19,20.00,30.00,Sunday
6,-1.49902500043719
7,10.2449743052782
2,1, 1, 1, 0,19,30.00,40.00,Sunday
6,-1.66569166710385
7,9.92240876663922
2,1, 1, 1, 0,19,40.00,50.00,Sunday
6,-1.83235833377052
7,9.61046671179135
2,1, 1, 1, 0,19,50.00,60.00,Sunday
6,-1.99902500043719
7,9.30383486143384
2,1, 1, 1, 0,20, 0.00,10.00,Sunday
6,-2.33235833377052
7,8.99015934263691
2,1, 1, 1, 0,20,10.00,20.00,Sunday
6,-2.66569166710385
7,8.66353092907431
2,1, 1, 1, 0,20,20.00,30.00,Sunday
6,-2.99902500043719
7,8.33300308359935
2,1, 1, 1, 0,20,30.00,40.00,Sunday
6,-3.33235833377052
7,8.0047121948275
2,1, 1, 1, 0,20,40.00,50.00,Sunday
6,-3.66569166710385
7,7.68486830819277
2,1, 1, 1, 0,20,50.00,60.00,Sunday
6,-3.99902500043719
7,7.36688966103597
2,1, 1, 1, 0,21, 0.00,10.00,Sunday
6,-4.16569166710385
7,7.05587660806461
2,1, 1, 1, 0,21,10.00,20.00,Sunday
6,-4.33235833377052
7,6.75277715248112
2,1, 1, 1, 0,21,20.00,30.00,Sunday
6,-4.49902500043719
7,6.4554292315807
2,1, 1, 1, 0,21,30.00,40.00,Sunday
6,-4.66569166710385
7,6.16201119656059
2,1, 1, 1, 0,21,40.00,50.00,Sunday
6,-4.83235833377052
7,5.8719975807432
2,1, 1, 1, 0,21,50.00,60.00,Sunday
6,-4.99902500043719
7,5.58552956425944
2,1, 1, 1, 0,22, 0.00,10.00,Sunday
6,-5.16569166710385
7,5.30225298632635
2,1, 1, 1, 0,22,10.00,20.00,Sunday
6,-5.33235833377052
7,5.02197594662323
2,1, 1, 1, 0,22,20.00,30.00,Sunday
6,-5.49902500043719
7,4.74470553269982
2,1, 1, 1, 0,22,30.00,40.00,Sunday
6,-5.66569166710385
7,4.47047212207104
2,1, 1, 1, 0,22,40.00,50.00,Sunday
6,-5.83235833377052
7,4.1992440265518
2,1, 1, 1, 0,22,50.00,60.00,Sunday
6,-5.99902500043719
7,3.93094123628522
2,1, 1, 1, 0,23, 0.00,10.00,Sunday
6,-6.16569166710385
7,3.66347360666321
2,1, 1, 1, 0,23,10.00,20.00,Sunday
6,-6.33235833377052
7,3.39672857438292
2,1, 1, 1, 0,23,20.00,30.00,Sunday
6,-6.49902500043719
7,3.13167565406477
2,1, 1, 1, 0,23,30.00,40.00,Sunday
6,-6.66569166710385
7,2.86909141715294
2,1, 1, 1, 0,23,40.00,50.00,Sunday
6,-6.83235833377052
7,2.60921538674846
2,1, 1, 1, 0,23,50.00,60.00,Sunday
6,-6.99902500043719
7,2.35197389658342
2,1, 1, 1, 0,24, 0.00,10.00,Sunday
6,-6.99902500043719
7,2.1058378465749
2,1, 1, 1, 0,24,10.00,20.00,Sunday
6,-6.99902500043719
7,1.87164084521611
2,1, 1, 1, 0,24,20.00,30.00,Sunday
6,-6.99902500043719
7,1.64598170365701
2,1, 1, 1, 0,24,30.00,40.00,Sunday
6,-6.99902500043719
7,1.42619066938523
2,1, 1, 1, 0,24,40.00,50.00,Sunday
6,-6.99902500043719
7,1.21149030097552
2,1, 1, 1, 0,24,50.00,60.00,Sunday
6,-6.99902500043719
7,1.0020410407881
2,2, 1, 2, 0, 1, 0.00,10.00,Monday
6,-7.33235833377052
7,0.783064762384082
2,2, 1, 2, 0, 1,10.00,20.00,Monday
6,-7.66569166710385
7,0.552809056054536
2,2, 1, 2, 0, 1,20.00,30.00,Monday
6,-7.99902500043719
7,0.316938600431779
2,2, 1, 2, 0, 1,30.00,40.00,Monday
6,-8.33235833377052
7,8.021281671919522E-002
2,2, 1, 2, 0, 1,40.00,50.00,Monday
6,-8.66569166710385
7,-0.155629327478385
2,2, 1, 2, 0, 1,50.00,60.00,Monday
6,-8.99902500043719
7,-0.388847691150731
2,2, 1, 2, 0, 2, 0.00,10.00,Monday
6,-9.16569166710385
7,-0.621529645102143
2,2, 1, 2, 0, 2,10.00,20.00,Monday
6,-9.33235833377052
7,-0.856439526919069
2,2, 1, 2, 0, 2,20.00,30.00,Monday
6,-9.49902500043719
7,-1.09481841762936
2,2, 1, 2, 0, 2,30.00,40.00,Monday
6,-9.66569166710385
7,-1.33632116060484
2,2, 1, 2, 0, 2,40.00,50.00,Monday
6,-9.83235833377052
7,-1.58003351489147
2,2, 1, 2, 0, 2,50.00,60.00,Monday
6,-9.99902500043719
7,-1.82520571579672
2,2, 1, 2, 0, 3, 0.00,10.00,Monday
6,-9.99902500043719
7,-2.06118929329126
2,2, 1, 2, 0, 3,10.00,20.00,Monday
6,-9.99902500043719
7,-2.28637698525014
2,2, 1, 2, 0, 3,20.00,30.00,Monday
6,-9.99902500043719
7,-2.503885084894
2,2, 1, 2, 0, 3,30.00,40.00,Monday
6,-9.99902500043719
7,-2.71603496668734
2,2, 1, 2, 0, 3,40.00,50.00,Monday
6,-9.99902500043719
7,-2.92312914104905
2,2, 1, 2, 0, 3,50.00,60.00,Monday
6,-9.99902500043719
7,-3.12452367148198
2,2, 1, 2, 0, 4, 0.00,10.00,Monday
6,-10.1656916671039
7,-3.33038408941303
2,2, 1, 2, 0, 4,10.00,20.00,Monday
6,-10.3323583337705
7,-3.54146848749312
2,2, 1, 2, 0, 4,20.00,30.00,Monday
6,-10.4990250004372
7,-3.75249055522591
2,2, 1, 2, 0, 4,30.00,40.00,Monday
6,-10.6656916671039
7,-3.96023019180695
2,2, 1, 2, 0, 4,40.00,50.00,Monday
6,-10.8323583337705
7,-4.16361686872876
2,2, 1, 2, 0, 4,50.00,60.00,Monday
6,-10.9990250004372
7,-4.36277311745899
2,2, 1, 2, 0, 5, 0.00,10.00,Monday
6,-11.1656916671039
7,-4.55780354114811
2,2, 1, 2, 0, 5,10.00,20.00,Monday
6,-11.3323583337705
7,-4.74927742469086
2,2, 1, 2, 0, 5,20.00,30.00,Monday
6,-11.4990250004372
7,-4.93804349704449
2,2, 1, 2, 0, 5,30.00,40.00,Monday
6,-11.6656916671039
7,-5.1248942332514
2,2, 1, 2, 0, 5,40.00,50.00,Monday
6,-11.8323583337705
7,-5.31038745527297
2,2, 1, 2, 0, 5,50.00,60.00,Monday
6,-11.9990250004372
7,-5.49485845620376
2,2, 1, 2, 0, 6, 0.00,10.00,Monday
6,-12.4990250004372
7,-5.69576722862645
2,2, 1, 2, 0, 6,10.00,20.00,Monday
6,-12.9990250004372
7,-5.9156258973756
2,2, 1, 2, 0, 6,20.00,30.00,Monday
6,-13.4990250004372
7,-6.14827816203567
2,2, 1, 2, 0, 6,30.00,40.00,Monday
6,-13.9990250004372
7,-6.38833292542507
2,2, 1, 2, 0, 6,40.00,50.00,Monday
6,-14.4990250004372
7,-6.63427426434286
2,2, 1, 2, 0, 6,50.00,60.00,Monday
6,-14.9990250004372
7,-6.88673019982896
2,2, 1, 2, 0, 7, 0.00,10.00,Monday
6,-14.8323583337705
7,-7.11391901908371
2,2, 1, 2, 0, 7,10.00,20.00,Monday
6,-14.6656916671039
7,-7.31199601901956
2,2, 1, 2, 0, 7,20.00,30.00,Monday
6,-14.4990250004372
7,-7.49249160099762
2,2, 1, 2, 0, 7,30.00,40.00,Monday
6,-14.3323583337705
7,-7.66433824641913
2,2, 1, 2, 0, 7,40.00,50.00,Monday
6,-14.1656916671039
7,-7.82977780155945
2,2, 1, 2, 0, 7,50.00,60.00,Monday
6,-13.9990250004372
7,-7.98774313501441
2,2, 1, 2, 0, 8, 0.00,10.00,Monday
6,-13.8323583337705
7,-8.1370012697183
2,2, 1, 2, 0, 8,10.00,20.00,Monday
6,-13.6656916671039
7,-8.27742536295447
2,2, 1, 2, 0, 8,20.00,30.00,Monday
6,-13.4990250004372
7,-8.38158544044826
2,2, 1, 2, 0, 8,30.00,40.00,Monday
6,-13.3323583337705
7,-8.41077589267718
2,2, 1, 2, 0, 8,40.00,50.00,Monday
6,-13.1656916671039
7,-8.35706104732609
2,2, 1, 2, 0, 8,50.00,60.00,Monday
6,-12.9990250004372
7,-8.21799461209572
2,2, 1, 2, 0, 9, 0.00,10.00,Monday
6,-12.6656916671039
7,-7.99366865748349
2,2, 1, 2, 0, 9,10.00,20.00,Monday
6,-12.3323583337705
7,-7.69160163343729
2,2, 1, 2, 0, 9,20.00,30.00,Monday
6,-11.9990250004372
7,-7.32156887656282
2,2, 1, 2, 0, 9,30.00,40.00,Monday
6,-11.6656916671039
7,-6.94414591807318
2,2, 1, 2, 0, 9,40.00,50.00,Monday
6,-11.3323583337705
7,-6.63756456299861
2,2, 1, 2, 0, 9,50.00,60.00,Monday
6,-10.9990250004372
7,-6.41525978196045
2,2, 1, 2, 0,10, 0.00,10.00,Monday
6,-10.3323583337705
7,-6.26542355737164
2,2, 1, 2, 0,10,10.00,20.00,Monday
6,-9.66569166710385
7,-6.1673626286788
2,2, 1, 2, 0,10,20.00,30.00,Monday
6,-8.99902500043719
7,-6.11879751783581
2,2, 1, 2, 0,10,30.00,40.00,Monday
6,-8.33235833377052
7,-6.08313813862253
2,2, 1, 2, 0,10,40.00,50.00,Monday
6,-7.66569166710385
7,-6.03060469621548
2,2, 1, 2, 0,10,50.00,60.00,Monday
6,-6.99902500043719
7,-5.95257594737667
2,2, 1, 2, 0,11, 0.00,10.00,Monday
6,-6.83235833377052
7,-5.87315570047282
2,2, 1, 2, 0,11,10.00,20.00,Monday
6,-6.66569166710385
7,-5.80024430016402
2,2, 1, 2, 0,11,20.00,30.00,Monday
6,-6.49902500043719
7,-5.72870303543802
2,2, 1, 2, 0,11,30.00,40.00,Monday
6,-6.33235833377052
7,-5.57320914083545
2,2, 1, 2, 0,11,40.00,50.00,Monday
6,-6.16569166710385
7,-5.22714699039951
2,2, 1, 2, 0,11,50.00,60.00,Monday
6,-5.99902500043719
7,-4.65964830529548
2,2, 1, 2, 0,12, 0.00,10.00,Monday
6,-5.99902500043719
7,-3.87080250654604
2,2, 1, 2, 0,12,10.00,20.00,Monday
6,-5.99902500043719
7,-2.8966114596554
2,2, 1, 2, 0,12,20.00,30.00,Monday
6,-5.99902500043719
7,-1.7692990674246
2,2, 1, 2, 0,12,30.00,40.00,Monday
6,-5.99902500043719
7,-0.633300299599706
2,2, 1, 2, 0,12,40.00,50.00,Monday
6,-5.99902500043719
7,0.41435180467232
2,2, 1, 2, 0,12,50.00,60.00,Monday
6,-5.99902500043719
7,1.36783633598809
2,2, 1, 2, 0,13, 0.00,10.00,Monday
6,-5.83235833377052
7,2.25320684858141
2,2, 1, 2, 0,13,10.00,20.00,Monday
6,-5.66569166710385
7,3.0456782526594
2,2, 1, 2, 0,13,20.00,30.00,Monday
6,-5.49902500043719
7,3.7540545708788
2,2, 1, 2, 0,13,30.00,40.00,Monday
6,-5.33235833377052
7,4.34587264667823
2,2, 1, 2, 0,13,40.00,50.00,Monday
6,-5.16569166710385
7,4.7782427759571
2,2, 1, 2, 0,13,50.00,60.00,Monday
6,-4.99902500043719
7,5.04666510302761
2,2, 1, 2, 0,14, 0.00,10.00,Monday
6,-4.99902500043719
7,5.16553984655972
2,2, 1, 2, 0,14,10.00,20.00,Monday
6,-4.99902500043719
7,5.12926598062073
2,2, 1, 2, 0,14,20.00,30.00,Monday
6,-4.99902500043719
7,4.95524918250838
2,2, 1, 2, 0,14,30.00,40.00,Monday
6,-4.99902500043719
7,4.91116599719727
2,2, 1, 2, 0,14,40.00,50.00,Monday
6,-4.99902500043719
7,5.20979042981944
2,2, 1, 2, 0,14,50.00,60.00,Monday
6,-4.99902500043719
7,5.88191413350194
2,2, 1, 2, 0,15, 0.00,10.00,Monday
6,-5.16569166710385
7,6.81708945539259
2,2, 1, 2, 0,15,10.00,20.00,Monday
6,-5.33235833377052
7,7.93306974160155
2,2, 1, 2, 0,15,20.00,30.00,Monday
6,-5.49902500043719
7,9.20409330242494
2,2, 1, 2, 0,15,30.00,40.00,Monday
6,-5.66569166710385
7,10.3397343345007
2,2, 1, 2, 0,15,40.00,50.00,Monday
6,-5.83235833377052
7,11.1027748994886
2,2, 1, 2, 0,15,50.00,60.00,Monday
6,-5.99902500043719
7,11.4817328151851
2,2, 1, 2, 0,16, 0.00,10.00,Monday
6,-6.16569166710385
7,11.5276858214023
2,2, 1, 2, 0,16,10.00,20.00,Monday
6,-6.33235833377052
7,11.3128362737524
2,2, 1, 2, 0,16,20.00,30.00,Monday
6,-6.49902500043719
7,10.8591034614594
2,2, 1, 2, 0,16,30.00,40.00,Monday
6,-6.66569166710385
7,10.3477218637945
2,2, 1, 2, 0,16,40.00,50.00,Monday
6,-6.83235833377052
7,9.91919507613887
2,2, 1, 2, 0,16,50.00,60.00,Monday
6,-6.99902500043719
7,9.5969512403314
2,2, 1, 2, 0,17, 0.00,10.00,Monday
6,-7.16569166710385
7,9.35968938976281
2,2, 1, 2, 0,17,10.00,20.00,Monday
6,-7.33235833377052
7,9.15519322408819
2,2, 1, 2, 0,17,20.00,30.00,Monday
6,-7.49902500043719
7,8.95747917710029
2,2, 1, 2, 0,17,30.00,40.00,Monday
6,-7.66569166710385
7,8.72280375788895
2,2, 1, 2, 0,17,40.00,50.00,Monday
6,-7.83235833377052
7,8.34913147649943
2,2, 1, 2, 0,17,50.00,60.00,Monday
6,-7.99902500043719
7,7.89140994911377
2,2, 1, 2, 0,18, 0.00,10.00,Monday
6,-7.99902500043719
7,7.43845246159635
2,2, 1, 2, 0,18,10.00,20.00,Monday
6,-7.99902500043719
7,7.02104782055901
2,2, 1, 2, 0,18,20.00,30.00,Monday
6,-7.99902500043719
7,6.62854423282071
2,2, 1, 2, 0,18,30.00,40.00,Monday
6,-7.99902500043719
7,6.24873046143684
2,2, 1, 2, 0,18,40.00,50.00,Monday
6,-7.99902500043719
7,5.87777876452386
2,2, 1, 2, 0,18,50.00,60.00,Monday
6,-7.99902500043719
7,5.5165655137843
2,2, 1, 2, 0,19, 0.00,10.00,Monday
6,-8.16569166710385
7,5.15673558789188
2,2, 1, 2, 0,19,10.00,20.00,Monday
6,-8.33235833377052
7,4.80073004247649
2,2, 1, 2, 0,19,20.00,30.00,Monday
6,-8.49902500043719
7,4.44942404873142
2,2, 1, 2, 0,19,30.00,40.00,Monday
6,-8.66569166710385
7,4.10327866446621
2,2, 1, 2, 0,19,40.00,50.00,Monday
6,-8.83235833377052
7,3.76238941552685
2,2, 1, 2, 0,19,50.00,60.00,Monday
6,-8.99902500043719
7,3.42658337203617
2,2, 1, 2, 0,20, 0.00,10.00,Monday
6,-9.33235833377052
7,3.0877572620183
2,2, 1, 2, 0,20,10.00,20.00,Monday
6,-9.66569166710385
7,2.74498602156572
2,2, 1, 2, 0,20,20.00,30.00,Monday
6,-9.99902500043719
7,2.40110730054066
2,2, 1, 2, 0,20,30.00,40.00,Monday
6,-10.3323583337705
7,2.05811532509519
2,2, 1, 2, 0,20,40.00,50.00,Monday
6,-10.6656916671039
7,1.71626213367592
2,2, 1, 2, 0,20,50.00,60.00,Monday
6,-10.9990250004372
7,1.37507403423704
2,2, 1, 2, 0,21, 0.00,10.00,Monday
6,-10.9990250004372
7,1.05170638367467
2,2, 1, 2, 0,21,10.00,20.00,Monday
6,-10.9990250004372
7,0.747794062141864
2,2, 1, 2, 0,21,20.00,30.00,Monday
6,-10.9990250004372
7,0.456611730638391
2,2, 1, 2, 0,21,30.00,40.00,Monday
6,-10.9990250004372
7,0.173170795625045
2,2, 1, 2, 0,21,40.00,50.00,Monday
6,-10.9990250004372
7,-0.103669416465948
2,2, 1, 2, 0,21,50.00,60.00,Monday
6,-10.9990250004372
7,-0.373265959007619
2,2, 1, 2, 0,22, 0.00,10.00,Monday
6,-10.9990250004372
7,-0.637426064860449
2,2, 1, 2, 0,22,10.00,20.00,Monday
6,-10.9990250004372
7,-0.896918397424006
2,2, 1, 2, 0,22,20.00,30.00,Monday
6,-10.9990250004372
7,-1.15141107599724
2,2, 1, 2, 0,22,30.00,40.00,Monday
6,-10.9990250004372
7,-1.40040004187756
2,2, 1, 2, 0,22,40.00,50.00,Monday
6,-10.9990250004372
7,-1.64368433284809
2,2, 1, 2, 0,22,50.00,60.00,Monday
6,-10.9990250004372
7,-1.88133816526131
2,2, 1, 2, 0,23, 0.00,10.00,Monday
6,-11.1656916671039
7,-2.12305840152084
2,2, 1, 2, 0,23,10.00,20.00,Monday
6,-11.3323583337705
7,-2.36975726862495
2,2, 1, 2, 0,23,20.00,30.00,Monday
6,-11.4990250004372
7,-2.61735309502069
2,2, 1, 2, 0,23,30.00,40.00,Monday
6,-11.6656916671039
7,-2.86254623908013
2,2, 1, 2, 0,23,40.00,50.00,Monday
6,-11.8323583337705
7,-3.10438055379435
2,2, 1, 2, 0,23,50.00,60.00,Monday
6,-11.9990250004372
7,-3.34321533141481
2,2, 1, 2, 0,24, 0.00,10.00,Monday
6,-11.9990250004372
7,-3.57096677542838
2,2, 1, 2, 0,24,10.00,20.00,Monday
6,-11.9990250004372
7,-3.78698823832293
2,2, 1, 2, 0,24,20.00,30.00,Monday
6,-11.9990250004372
7,-3.99482150647062
2,2, 1, 2, 0,24,30.00,40.00,Monday
6,-11.9990250004372
7,-4.19837736726809
2,2, 1, 2, 0,24,40.00,50.00,Monday
6,-11.9990250004372
7,-4.39769253384631
2,2, 1, 2, 0,24,50.00,60.00,Monday
6,-11.9990250004372
7,-4.59200510104587
2,3, 1, 3, 0, 1, 0.00,10.00,Tuesday
6,-12.1656916671039
7,-4.78886811564782
2,3, 1, 3, 0, 1,10.00,20.00,Tuesday
6,-12.3323583337705
7,-4.98975154039957
2,3, 1, 3, 0, 1,20.00,30.00,Tuesday
6,-12.4990250004372
7,-5.19216079197936
2,3, 1, 3, 0, 1,30.00,40.00,Tuesday
6,-12.6656916671039
7,-5.39385904731775
2,3, 1, 3, 0, 1,40.00,50.00,Tuesday
6,-12.8323583337705
7,-5.59361648491399
2,3, 1, 3, 0, 1,50.00,60.00,Tuesday
6,-12.9990250004372
7,-5.79219005048098
2,3, 1, 3, 0, 2, 0.00,10.00,Tuesday
6,-13.0323583337705
7,-5.98440859393041
2,3, 1, 3, 0, 2,10.00,20.00,Tuesday
6,-13.0656916671039
7,-6.16953482466468
2,3, 1, 3, 0, 2,20.00,30.00,Tuesday
6,-13.0990250004372
7,-6.34947235537652
2,3, 1, 3, 0, 2,30.00,40.00,Tuesday
6,-13.1323583337705
7,-6.52577728466332
2,3, 1, 3, 0, 2,40.00,50.00,Tuesday
6,-13.1656916671039
7,-6.69887516225664
2,3, 1, 3, 0, 2,50.00,60.00,Tuesday
6,-13.1990250004372
7,-6.8685959219475
2,3, 1, 3, 0, 3, 0.00,10.00,Tuesday
6,-13.2656916671039
7,-7.03626028210574
2,3, 1, 3, 0, 3,10.00,20.00,Tuesday
6,-13.3323583337705
7,-7.20199883426502
2,3, 1, 3, 0, 3,20.00,30.00,Tuesday
6,-13.3990250004372
7,-7.3653741611998
2,3, 1, 3, 0, 3,30.00,40.00,Tuesday
6,-13.4656916671039
7,-7.52611653380749
2,3, 1, 3, 0, 3,40.00,50.00,Tuesday
6,-13.5323583337705
7,-7.68423192571665
2,3, 1, 3, 0, 3,50.00,60.00,Tuesday
6,-13.5990250004372
7,-7.84035597676511
2,3, 1, 3, 0, 4, 0.00,10.00,Tuesday
6,-13.6656916671039
7,-7.99426150382818
2,3, 1, 3, 0, 4,10.00,20.00,Tuesday
6,-13.7323583337705
7,-8.14569121435888
2,3, 1, 3, 0, 4,20.00,30.00,Tuesday
6,-13.7990250004372
7,-8.29465425886075
2,3, 1, 3, 0, 4,30.00,40.00,Tuesday
6,-13.8656916671039
7,-8.4413024105098
2,3, 1, 3, 0, 4,40.00,50.00,Tuesday
6,-13.9323583337705
7,-8.58577929502651
2,3, 1, 3, 0, 4,50.00,60.00,Tuesday
6,-13.9990250004372
7,-8.72817365127262
2,3, 1, 3, 0, 5, 0.00,10.00,Tuesday
6,-13.9990250004372
7,-8.86535029832615
2,3, 1, 3, 0, 5,10.00,20.00,Tuesday
6,-13.9990250004372
7,-8.99680446593711
2,3, 1, 3, 0, 5,20.00,30.00,Tuesday
6,-13.9990250004372
7,-9.12382296920522
2,3, 1, 3, 0, 5,30.00,40.00,Tuesday
6,-13.9990250004372
7,-9.24767921799181
2,3, 1, 3, 0, 5,40.00,50.00,Tuesday
6,-13.9990250004372
7,-9.36898568684578
2,3, 1, 3, 0, 5,50.00,60.00,Tuesday
6,-13.9990250004372
7,-9.48789562720746
2,3, 1, 3, 0, 6, 0.00,10.00,Tuesday
6,-13.9990250004372
7,-9.60444636799144
2,3, 1, 3, 0, 6,10.00,20.00,Tuesday
6,-13.9990250004372
7,-9.71868066517311
2,3, 1, 3, 0, 6,20.00,30.00,Tuesday
6,-13.9990250004372
7,-9.83062822972076
2,3, 1, 3, 0, 6,30.00,40.00,Tuesday
6,-13.9990250004372
7,-9.94028633485847
2,3, 1, 3, 0, 6,40.00,50.00,Tuesday
6,-13.9990250004372
7,-10.0476454297515
2,3, 1, 3, 0, 6,50.00,60.00,Tuesday
6,-13.9990250004372
7,-10.1527167191555
2,3, 1, 3, 0, 7, 0.00,10.00,Tuesday
6,-13.9990250004372
7,-10.2563787328642
2,3, 1, 3, 0, 7,10.00,20.00,Tuesday
6,-13.9990250004372
7,-10.3591165589778
2,3, 1, 3, 0, 7,20.00,30.00,Tuesday
6,-13.9990250004372
7,-10.4610718309554
2,3, 1, 3, 0, 7,30.00,40.00,Tuesday
6,-13.9990250004372
7,-10.5623713865358
2,3, 1, 3, 0, 7,40.00,50.00,Tuesday
6,-13.9990250004372
7,-10.6632479747055
2,3, 1, 3, 0, 7,50.00,60.00,Tuesday
6,-13.9990250004372
7,-10.7640009123161
2,3, 1, 3, 0, 8, 0.00,10.00,Tuesday
6,-14.4990250004372
7,-10.8871470141475
2,3, 1, 3, 0, 8,10.00,20.00,Tuesday
6,-14.9990250004372
7,-11.0370094181275
2,3, 1, 3, 0, 8,20.00,30.00,Tuesday
6,-15.4990250004372
7,-11.1007489008386
2,3, 1, 3, 0, 8,30.00,40.00,Tuesday
6,-15.9990250004372
7,-10.9225681390054
2,3, 1, 3, 0, 8,40.00,50.00,Tuesday
6,-16.4990250004372
7,-10.47021455202
2,3, 1, 3, 0, 8,50.00,60.00,Tuesday
6,-16.9990250004372
7,-9.76711007829497
2,3, 1, 3, 0, 9, 0.00,10.00,Tuesday
6,-16.3323583337705
7,-8.79238587240115
2,3, 1, 3, 0, 9,10.00,20.00,Tuesday
6,-15.6656916671039
7,-7.57034777226935
2,3, 1, 3, 0, 9,20.00,30.00,Tuesday
6,-14.9990250004372
7,-6.14240148259343
2,3, 1, 3, 0, 9,30.00,40.00,Tuesday
6,-14.3323583337705
7,-4.66247907939015
2,3, 1, 3, 0, 9,40.00,50.00,Tuesday
6,-13.6656916671039
7,-3.24186477375908
2,3, 1, 3, 0, 9,50.00,60.00,Tuesday
6,-12.9990250004372
7,-1.87239759836353
2,3, 1, 3, 0,10, 0.00,10.00,Tuesday
6,-12.6656916671039
7,-0.5493822152401
2,3, 1, 3, 0,10,10.00,20.00,Tuesday
6,-12.3323583337705
7,0.740798212004277
2,3, 1, 3, 0,10,20.00,30.00,Tuesday
6,-11.9990250004372
7,2.01768707773111
2,3, 1, 3, 0,10,30.00,40.00,Tuesday
6,-11.6656916671039
7,3.20083754483139
2,3, 1, 3, 0,10,40.00,50.00,Tuesday
6,-11.3323583337705
7,4.23484748921708
2,3, 1, 3, 0,10,50.00,60.00,Tuesday
6,-10.9990250004372
7,5.09847874234233
2,3, 1, 3, 0,11, 0.00,10.00,Tuesday
6,-10.6656916671039
7,5.76922316059534
2,3, 1, 3, 0,11,10.00,20.00,Tuesday
6,-10.3323583337705
7,6.27158854287601
2,3, 1, 3, 0,11,20.00,30.00,Tuesday
6,-9.99902500043719
7,6.60565166736766
2,3, 1, 3, 0,11,30.00,40.00,Tuesday
6,-9.66569166710385
7,6.90463845855403
2,3, 1, 3, 0,11,40.00,50.00,Tuesday
6,-9.33235833377052
7,7.27101397126089
2,3, 1, 3, 0,11,50.00,60.00,Tuesday
6,-8.99902500043719
7,7.71001349872205
2,3, 1, 3, 0,12, 0.00,10.00,Tuesday
6,-8.83235833377052
7,8.17914136716955
2,3, 1, 3, 0,12,10.00,20.00,Tuesday
6,-8.66569166710385
7,8.65782412308252
2,3, 1, 3, 0,12,20.00,30.00,Tuesday
6,-8.49902500043719
7,9.14668617806737
2,3, 1, 3, 0,12,30.00,40.00,Tuesday
6,-8.33235833377052
7,9.74895345127301
2,3, 1, 3, 0,12,40.00,50.00,Tuesday
6,-8.16569166710385
7,10.4904151084962
2,3, 1, 3, 0,12,50.00,60.00,Tuesday
6,-7.99902500043719
7,11.3338103578644
2,3, 1, 3, 0,13, 0.00,10.00,Tuesday
6,-7.83235833377052
7,12.3057766635442
2,3, 1, 3, 0,13,10.00,20.00,Tuesday
6,-7.66569166710385
7,13.3893519074634
2,3, 1, 3, 0,13,20.00,30.00,Tuesday
6,-7.49902500043719
7,14.5545284975592
2,3, 1, 3, 0,13,30.00,40.00,Tuesday
6,-7.33235833377052
7,15.6907463524187
2,3, 1, 3, 0,13,40.00,50.00,Tuesday
6,-7.16569166710385
7,16.7468868613706
2,3, 1, 3, 0,13,50.00,60.00,Tuesday
6,-6.99902500043719
7,17.7363970255839
2,3, 1, 3, 0,14, 0.00,10.00,Tuesday
6,-7.01569166710385
7,18.6686080817182
2,3, 1, 3, 0,14,10.00,20.00,Tuesday
6,-7.03235833377052
7,19.5513257487315
2,3, 1, 3, 0,14,20.00,30.00,Tuesday
6,-7.04902500043718
7,20.3849592394856
2,3, 1, 3, 0,14,30.00,40.00,Tuesday
6,-7.06569166710385
7,21.2342273740032
2,3, 1, 3, 0,14,40.00,50.00,Tuesday
6,-7.08235833377052
7,22.1348985569996
2,3, 1, 3, 0,14,50.00,60.00,Tuesday
6,-7.09902500043718
7,23.0970370977782
2,3, 1, 3, 0,15, 0.00,10.00,Tuesday
6,-7.21569166710385
7,24.0864640110281
2,3, 1, 3, 0,15,10.00,20.00,Tuesday
6,-7.33235833377052
7,25.0759775374197
2,3, 1, 3, 0,15,20.00,30.00,Tuesday
6,-7.44902500043718
7,26.0579374465598
2,3, 1, 3, 0,15,30.00,40.00,Tuesday
6,-7.56569166710385
7,26.9769662933133
2,3, 1, 3, 0,15,40.00,50.00,Tuesday
6,-7.68235833377052
7,27.7911427590467
2,3, 1, 3, 0,15,50.00,60.00,Tuesday
6,-7.79902500043718
7,28.5047986530771
2,3, 1, 3, 0,16, 0.00,10.00,Tuesday
6,-7.99902500043719
7,29.1274249508688
2,3, 1, 3, 0,16,10.00,20.00,Tuesday
6,-8.19902500043719
7,29.6680294827069
2,3, 1, 3, 0,16,20.00,30.00,Tuesday
6,-8.39902500043719
7,30.1177189201954
2,3, 1, 3, 0,16,30.00,40.00,Tuesday
6,-8.59902500043719
7,30.3867336325088
2,3, 1, 3, 0,16,40.00,50.00,Tuesday
6,-8.79902500043718
7,30.4295858387235
2,3, 1, 3, 0,16,50.00,60.00,Tuesday
6,-8.99902500043719
7,30.260031416637
2,3, 1, 3, 0,17, 0.00,10.00,Tuesday
6,-8.99902500043719
7,29.9064121664833
2,3, 1, 3, 0,17,10.00,20.00,Tuesday
6,-8.99902500043719
7,29.3770263903292
2,3, 1, 3, 0,17,20.00,30.00,Tuesday
6,-8.99902500043719
7,28.6807279774041
2,3, 1, 3, 0,17,30.00,40.00,Tuesday
6,-8.99902500043719
7,27.8933896005352
2,3, 1, 3, 0,17,40.00,50.00,Tuesday
6,-8.99902500043719
7,26.9248690899593
2,3, 1, 3, 0,17,50.00,60.00,Tuesday
6,-8.99902500043719
7,25.8834765976182
2,3, 1, 3, 0,18, 0.00,10.00,Tuesday
6,-8.99902500043719